"","Name","SMILES","RTI","exact mass","formula","logP","mz_pos","mz_neg","NAPS_POS_1","NAPS_POS_2","NAPS_POS_3","NAPS_POS_4","NAPS_POS_5","NAPS_POS_6","NAPS_NEG_1","NAPS_NEG_2","NAPS_NEG_3","NAPS_NEG_4","NAPS_NEG_5","NAPS_NEG_6"
"C1-APS","C1-APS","C[N+]1=CC(=CC=C1)S([O-])(=O)=O",100,173.014664263,"C6H7NO3S",-4.01,174.021940263,218.012864263,27.28699999998,27.096,27.20599999998,27.384,27.46300000002,27.174,26.93200000002,27.26299999998,26.81800000002,26.84899999998,26.89699999998,26.80900000002
"C2-APS","C2-APS","CC[N+]1=CC(=CC=C1)S([O-])(=O)=O",200,187.030314328,"C7H9NO3S",-3.65,188.037590328,232.028514328,28.48399999998,28.293,28.40299999998,28.581,28.66000000002,28.371,28.12900000002,28.45999999998,28.61299999998,28.644,28.692,28.60399999998
"C3-APS","C3-APS","CCC[N+]1=CC(=CC=C1)S([O-])(=O)=O",300,201.045964392,"C8H11NO3S",-3.13,202.053240392,246.044164392,33.87,33.67900000002,33.789,33.96700000002,34.04599999998,33.75700000002,33.51499999998,33.24700000002,33.40000000002,33.432,33.48,33.39199999998
"C4-APS","C4-APS","CCCC[N+]1=CC(=CC=C1)S([O-])(=O)=O",400,215.061614457,"C9H13NO3S",-2.68,216.068890457,260.059814457,51.82300000002,52.23,52.33999999998,52.518,52.59799999998,52.308,50.271,50.004,50.157,50.18800000002,50.23600000002,50.74600000002
"C5-APS","C5-APS","CCCCC[N+]1=CC(=CC=C1)S([O-])(=O)=O",500,229.077264521,"C10H15NO3S",-2.24,230.084540521,274.075464521,124.23400000002,124.64200000002,124.752,125.52799999998,125.607,125.91700000002,117.29599999998,118.22599999998,118.38499999998,118.41,118.45900000002,118.36999999998
"C6-APS","C6-APS","CCCCCC[N+]1=CC(=CC=C1)S([O-])(=O)=O",600,243.092914585,"C11H17NO3S",-1.79,244.100190585,288.091114585,204.42499999998,204.83899999998,204.94699999998,205.12000000002,205.206,204.91099999998,201.67600000002,202.014,202.167,202.19200000002,202.24000000002,202.152
"C7-APS","C7-APS","CCCCCCC[N+]1=CC(=CC=C1)S([O-])(=O)=O",700,257.10856465,"C12H19NO3S",-1.35,258.11584065,302.10676465,247.51300000002,247.926,248.03500000002,248.208,248.29399999998,248.004,245.36200000002,245.7,245.859,245.87800000002,245.92600000002,245.838
"C8-APS","C8-APS","CCCCCCCC[N+]1=CC(=CC=C1)S([O-])(=O)=O",800,271.124214714,"C13H21NO3S",-0.9,272.131490714,316.122414714,281.62399999998,282.03700000002,282.14599999998,282.31900000002,282.405,282.11500000002,280.07200000002,280.41,280.56799999998,279.98899999998,280.63600000002,280.54699999998
"C9-APS","C9-APS","CCCCCCCCC[N+]1=CC(=CC=C1)S([O-])(=O)=O",900,285.139864779,"C14H23NO3S",-0.46,286.147140779,330.138064779,311.54599999998,311.96599999998,312.06799999998,312.24100000002,312.327,312.03700000002,309.99400000002,310.338,310.48999999998,309.91099999998,310.55800000002,310.46899999998
"C10-APS","C10-APS","CCCCCCCCCC[N+]1=CC(=CC=C1)S([O-])(=O)=O",1000,299.155514843,"C15H25NO3S",-0.02,300.162790843,344.153714843,339.07399999998,339.49399999998,338.99800000002,339.17599999998,339.26299999998,339.56500000002,337.52200000002,337.866,337.42000000002,337.44,337.488,337.39900000002
"C11-APS","C11-APS","CCCCCCCCCCC[N+]1=CC(=CC=C1)S([O-])(=O)=O",1100,313.171164907,"C16H27NO3S",0.43,314.178440907,358.169364907,364.80700000002,364.62799999998,364.737,364.90900000002,364.99600000002,364.69999999998,363.25900000002,363.00100000002,363.153,363.17200000002,363.22099999998,363.132
"C12-APS","C12-APS","CCCCCCCCCCCC[N+]1=CC(=CC=C1)S([O-])(=O)=O",1200,327.186814972,"C17H29NO3S",0.87,328.194090972,372.185014972,389.343,389.763,389.27299999998,389.445,389.532,389.83999999998,387.79600000002,388.13500000002,388.28800000002,388.30699999998,388.359,388.26700000002
"C13-APS","C13-APS","CCCCCCCCCCCCC[N+]1=CC(=CC=C1)S([O-])(=O)=O",1300,341.202465036,"C18H31NO3S",1.32,342.209741036,386.200665036,413.28499999998,413.70100000002,413.80900000002,413.38300000002,413.47000000002,413.778,411.73300000002,412.07299999998,412.23100000002,412.245,412.29700000002,412.20400000002
"C14-APS","C14-APS","CCCCCCCCCCCCCC[N+]1=CC(=CC=C1)S([O-])(=O)=O",1400,355.218115101,"C19H33NO3S",1.76,356.225391101,400.216315101,437.223,437.04,437.148,437.32099999998,437.40700000002,437.11699999998,435.67099999998,436.00999999998,435.57100000002,435.58399999998,436.23499999998,436.14199999998
"C15-APS","C15-APS","CCCCCCCCCCCCCCC[N+]1=CC(=CC=C1)S([O-])(=O)=O",1500,369.233765165,"C20H35NO3S",2.21,370.241041165,414.231965165,460.56199999998,460.98400000002,460.48699999998,460.66000000002,460.746,461.055,459.01000000002,459.34999999998,459.50800000002,459.52099999998,459.57400000002,459.48100000002
"C16-APS","C16-APS","CCCCCCCCCCCCCCCC[N+]1=CC(=CC=C1)S([O-])(=O)=O",1600,383.249415229,"C21H37NO3S",2.65,384.256691229,428.247615229,483.90100000002,483.72400000002,483.82600000002,484.005,484.09099999998,483.795,482.349,482.69500000002,482.24899999998,482.262,482.31400000002,482.22199999998
"C17-APS","C17-APS","CCCCCCCCCCCCCCCCC[N+]1=CC(=CC=C1)S([O-])(=O)=O",1700,397.265065294,"C22H39NO3S",3.1,398.272341294,442.263265294,506.04400000002,506.46499999998,506.57299999998,506.14699999998,506.23399999998,506.53600000002,505.09600000002,504.837,504.99,NA,505.05499999998,504.96199999998
"C18-APS","C18-APS","CCCCCCCCCCCCCCCCCC[N+]1=CC(=CC=C1)S([O-])(=O)=O",1800,411.280715358,"C23H41NO3S",3.54,412.287991358,456.278915358,528.186,528.60700000002,528.117,528.28999999998,528.37600000002,528.678,527.238,526.98,527.13199999998,527.145,527.20399999998,527.11099999998
"C19-APS","C19-APS","CCCCCCCCCCCCCCCCCCC[N+]1=CC(=CC=C1)S([O-])(=O)=O",1900,425.296365423,"C24H43NO3S",3.99,426.303641423,470.294565423,549.13099999998,548.95399999998,549.063,549.23500000002,549.321,549.03199999998,548.184,547.92499999998,548.07700000002,548.08999999998,548.14900000002,548.05600000002
"C20-APS","C20-APS","CCCCCCCCCCCCCCCCCCCC[N+]1=CC(=CC=C1)S([O-])(=O)=O",2000,439.312015487,"C25H45NO3S",4.43,440.319291487,484.310215487,568.88599999998,568.70299999998,568.81099999998,568.98400000002,568.47199999998,568.78000000002,567.33400000002,567.67399999998,567.83200000002,567.243,567.89800000002,567.80500000002