"","Name","SMILES","RTI","exact mass","formula","logP","mz_pos","mz_neg","NAPS_POS_1","NAPS_POS_2","NAPS_POS_3","NAPS_POS_4","NAPS_POS_5","NAPS_POS_6","NAPS_NEG_1","NAPS_NEG_2","NAPS_NEG_3","NAPS_NEG_4","NAPS_NEG_5","NAPS_NEG_6"
"C1-APS","C1-APS","C[N+]1=CC(=CC=C1)S([O-])(=O)=O",100,173.014664263,"C6H7NO3S",-4.01,174.021940263,218.012864263,28.00300000002,NA,NA,NA,27.696,NA,27.57799999998,27.41299999998,26.99500000002,27.477,26.89300000002,27.411
"C2-APS","C2-APS","CC[N+]1=CC(=CC=C1)S([O-])(=O)=O",200,187.030314328,"C7H9NO3S",-3.65,188.037590328,232.028514328,29.43100000002,29.11000000002,29.859,29.68900000002,29.163,29.13199999998,29.05600000002,28.79800000002,28.428,28.89199999998,28.25500000002,NA
"C3-APS","C3-APS","CCC[N+]1=CC(=CC=C1)S([O-])(=O)=O",300,201.045964392,"C8H11NO3S",-3.13,202.053240392,246.044164392,36.3,36.10000000002,36.08899999998,36.55399999998,36.03499999998,36.13699999998,NA,NA,NA,NA,NA,NA
"C4-APS","C4-APS","CCCC[N+]1=CC(=CC=C1)S([O-])(=O)=O",400,215.061614457,"C9H13NO3S",-2.68,216.068890457,260.059814457,56.88,55.62,56.03200000002,55.27999999998,55.82599999998,56.03500000002,56.17099999998,54.711,55.047,55.75699999998,55.01899999998,55.61800000002
"C5-APS","C5-APS","CCCCC[N+]1=CC(=CC=C1)S([O-])(=O)=O",500,229.077264521,"C10H15NO3S",-2.24,230.084540521,274.075464521,143.757,139.917,140.41000000002,138.84499999998,140.526,141.19999999998,140.35099999998,139.09399999998,139.24999999998,139.84000000002,138.42700000002,138.94699999998
"C6-APS","C6-APS","CCCCCC[N+]1=CC(=CC=C1)S([O-])(=O)=O",600,243.092914585,"C11H17NO3S",-1.79,244.100190585,288.091114585,222.73600000002,221.90500000002,221.70400000002,221.99200000002,221.664,221.72500000002,221.59300000002,220.203,220.07200000002,221.45299999998,220.353,220.69399999998
"C7-APS","C7-APS","CCCCCCC[N+]1=CC(=CC=C1)S([O-])(=O)=O",700,257.10856465,"C12H19NO3S",-1.35,258.11584065,302.10676465,263.436,262.98199999998,262.79599999998,262.96399999998,262.869,262.25599999998,262.71199999998,261.51499999998,261.30499999998,262.923,261.51799999998,262.18099999998
"C8-APS","C8-APS","CCCCCCCC[N+]1=CC(=CC=C1)S([O-])(=O)=O",800,271.124214714,"C13H21NO3S",-0.9,272.131490714,316.122414714,295.15099999998,294.74200000002,295.10200000002,295.24999999998,294.94999999998,293.81599999998,294.954,294.099,294.033,294.879,294.01099999998,294.12400000002
"C9-APS","C9-APS","CCCCCCCCC[N+]1=CC(=CC=C1)S([O-])(=O)=O",900,285.139864779,"C14H23NO3S",-0.46,286.147140779,330.138064779,322.84900000002,322.28299999998,322.35,322.96099999998,322.923,322.28899999998,322.689,321.732,321.69499999998,323.03800000002,321.573,322.50799999998
"C10-APS","C10-APS","CCCCCCCCCC[N+]1=CC(=CC=C1)S([O-])(=O)=O",1000,299.155514843,"C15H25NO3S",-0.02,300.162790843,344.153714843,348.43399999998,348.423,348.201,349.227,348.54499999998,347.739,348.58300000002,347.544,347.83900000002,348.27700000002,347.919,348.25099999998
"C11-APS","C11-APS","CCCCCCCCCCC[N+]1=CC(=CC=C1)S([O-])(=O)=O",1100,313.171164907,"C16H27NO3S",0.43,314.178440907,358.169364907,373.30099999998,373.36999999998,373.44199999998,373.527,373.662,372.79600000002,373.88599999998,372.98200000002,372.705,373.48000000002,372.38599999998,373.45900000002
"C12-APS","C12-APS","CCCCCCCCCCCC[N+]1=CC(=CC=C1)S([O-])(=O)=O",1200,327.186814972,"C17H29NO3S",0.87,328.194090972,372.185014972,397.68,397.65400000002,397.995,398.57299999998,398.35900000002,397.62400000002,398.763,397.35,397.47,398.43199999998,397.66099999998,398.094
"C13-APS","C13-APS","CCCCCCCCCCCCC[N+]1=CC(=CC=C1)S([O-])(=O)=O",1300,341.202465036,"C18H31NO3S",1.32,342.209741036,386.200665036,422.073,422.21299999998,422.48500000002,423.10600000002,422.18599999998,422.193,422.898,422.09299999998,421.77,422.682,421.71,422.46799999998
"C14-APS","C14-APS","CCCCCCCCCCCCCC[N+]1=CC(=CC=C1)S([O-])(=O)=O",1400,355.218115101,"C19H33NO3S",1.76,356.225391101,400.216315101,446.51599999998,446.64199999998,446.52799999998,447.65200000002,446.71300000002,446.39800000002,447.45700000002,446.50999999998,446.39299999998,447.063,446.421,446.79199999998
"C15-APS","C15-APS","CCCCCCCCCCCCCCC[N+]1=CC(=CC=C1)S([O-])(=O)=O",1500,369.233765165,"C20H35NO3S",2.21,370.241041165,414.231965165,470.88400000002,471.76900000002,471.40000000002,472.36699999998,472.053,470.92900000002,472.662,471.03400000002,470.907,471.57799999998,470.709,471.88900000002
"C16-APS","C16-APS","CCCCCCCCCCCCCCCC[N+]1=CC(=CC=C1)S([O-])(=O)=O",1600,383.249415229,"C21H37NO3S",2.65,384.256691229,428.247615229,495.813,496.32,496.002,496.85200000002,496.53400000002,496.09399999998,496.51399999998,495.87100000002,495.60100000002,496.704,495.267,495.91399999998
"C17-APS","C17-APS","CCCCCCCCCCCCCCCCC[N+]1=CC(=CC=C1)S([O-])(=O)=O",1700,397.265065294,"C22H39NO3S",3.1,398.272341294,442.263265294,520.27900000002,520.19299999998,520.30999999998,521.20000000002,520.08799999998,520.25299999998,520.47700000002,519.726,519.471,NA,519.59500000002,519.78499999998
"C18-APS","C18-APS","CCCCCCCCCCCCCCCCCC[N+]1=CC(=CC=C1)S([O-])(=O)=O",1800,411.280715358,"C23H41NO3S",3.54,412.287991358,456.278915358,543.864,543.73999999998,543.702,544.182,543.693,543.53899999998,543.64600000002,542.99500000002,543.006,543.633,542.1705,543.375
"C19-APS","C19-APS","CCCCCCCCCCCCCCCCCCC[N+]1=CC(=CC=C1)S([O-])(=O)=O",1900,425.296365423,"C24H43NO3S",3.99,426.303641423,470.294565423,565.83100000002,565.69300000002,566.24500000002,566.139,565.743,565.464,565.77199999998,565.09900000002,564.495,566.06500000002,564.74599999998,565.41400000002
"C20-APS","C20-APS","CCCCCCCCCCCCCCCCCCCC[N+]1=CC(=CC=C1)S([O-])(=O)=O",2000,439.312015487,"C25H45NO3S",4.43,440.319291487,484.310215487,586.968,586.8,586.58800000002,587.04199999998,586.73200000002,586.50700000002,586.73299999998,NA,585.72799999998,587.01100000002,585.984,586.041